v 0 eval {set sim_annotation {Cm = 4, Lm = 3, BlockSize = 85, CSkip0 = 21, CSkip1 = 5, CSkip2 = 1}}
r 10.300000000 _3_ RTR  --- 0 cbr 80 [0 0 0 0] ------- [3:0 18:0 32 0] [0] 0 0
v 10.300000000000001 eval {set sim_annotation {(at 10.3) cbr traffic from node 3 to node 18}}
s 10.300000000 _3_ RTR  --- 0 cbr 100 [0 0 0 0] ------- [3:0 18:0 30 2] [0] 0 0
r 10.305657067 _2_ RTR  --- 0 cbr 100 [0 2 3 800] ------- [3:0 18:0 30 2] [0] 1 0
s 10.305657067 _2_ RTR  --- 0 ZBR 48 [0 0 0 0] ------- [2:255 -1:255 30 0] [0x2 1 1 [18 0] [2 0]] (REQUEST)
r 10.310777100 _1_ RTR  --- 0 ZBR 48 [0 ffffffff 2 800] ------- [2:255 -1:255 30 0] [0x2 1 1 [18 0] [2 0]] (REQUEST)
r 10.310777100 _4_ RTR  --- 0 ZBR 48 [0 ffffffff 2 800] ------- [2:255 -1:255 30 0] [0x2 1 1 [18 0] [2 0]] (REQUEST)
r 10.310777100 _3_ RTR  --- 0 ZBR 48 [0 ffffffff 2 800] ------- [2:255 -1:255 30 0] [0x2 1 1 [18 0] [2 0]] (REQUEST)
r 10.310777100 _19_ RTR  --- 0 ZBR 48 [0 ffffffff 2 800] ------- [2:255 -1:255 30 0] [0x2 1 1 [18 0] [2 0]] (REQUEST)
s 10.317860621 _19_ RTR  --- 0 ZBR 48 [0 ffffffff 2 800] ------- [19:255 -1:255 29 0] [0x2 2 1 [18 0] [2 0]] (REQUEST)
s 10.318999209 _1_ RTR  --- 0 ZBR 48 [0 ffffffff 2 800] ------- [1:255 -1:255 29 0] [0x2 2 1 [18 0] [2 0]] (REQUEST)
r 10.323449067 _20_ RTR  --- 0 ZBR 48 [0 ffffffff 13 800] ------- [19:255 -1:255 29 0] [0x2 2 1 [18 0] [2 0]] (REQUEST)
r 10.323449067 _16_ RTR  --- 0 ZBR 48 [0 ffffffff 13 800] ------- [19:255 -1:255 29 0] [0x2 2 1 [18 0] [2 0]] (REQUEST)
r 10.324409067 _5_ RTR  --- 0 ZBR 48 [0 ffffffff 1 800] ------- [1:255 -1:255 29 0] [0x2 2 1 [18 0] [2 0]] (REQUEST)
r 10.324409067 _7_ RTR  --- 0 ZBR 48 [0 ffffffff 1 800] ------- [1:255 -1:255 29 0] [0x2 2 1 [18 0] [2 0]] (REQUEST)
s 10.325707482 _5_ RTR  --- 0 ZBR 48 [0 ffffffff 1 800] ------- [5:255 -1:255 28 0] [0x2 3 1 [18 0] [2 0]] (REQUEST)
s 10.328883790 _16_ RTR  --- 0 ZBR 48 [0 ffffffff 13 800] ------- [16:255 -1:255 28 0] [0x2 3 1 [18 0] [2 0]] (REQUEST)
r 10.329949515 _4_ RTR  --- 0 ZBR 48 [0 ffffffff 5 800] ------- [5:255 -1:255 28 0] [0x2 3 1 [18 0] [2 0]] (REQUEST)
r 10.329949515 _6_ RTR  --- 0 ZBR 48 [0 ffffffff 5 800] ------- [5:255 -1:255 28 0] [0x2 3 1 [18 0] [2 0]] (REQUEST)
r 10.329949515 _1_ RTR  --- 0 ZBR 48 [0 ffffffff 5 800] ------- [5:255 -1:255 28 0] [0x2 3 1 [18 0] [2 0]] (REQUEST)
r 10.334137100 _13_ RTR  --- 0 ZBR 48 [0 ffffffff 10 800] ------- [16:255 -1:255 28 0] [0x2 3 1 [18 0] [2 0]] (REQUEST)
r 10.334137100 _19_ RTR  --- 0 ZBR 48 [0 ffffffff 10 800] ------- [16:255 -1:255 28 0] [0x2 3 1 [18 0] [2 0]] (REQUEST)
r 10.334137100 _18_ RTR  --- 0 ZBR 48 [0 ffffffff 10 800] ------- [16:255 -1:255 28 0] [0x2 3 1 [18 0] [2 0]] (REQUEST)
r 10.334137100 _17_ RTR  --- 0 ZBR 48 [0 ffffffff 10 800] ------- [16:255 -1:255 28 0] [0x2 3 1 [18 0] [2 0]] (REQUEST)
s 10.334437100 _18_ RTR  --- 0 ZBR 44 [0 0 0 0] ------- [18:255 2:255 30 16] [0x4 1 [18 0] 10.000000] (REPLY)
s 10.338218296 _6_ RTR  --- 0 ZBR 48 [0 ffffffff 5 800] ------- [6:255 -1:255 27 0] [0x2 4 1 [18 0] [2 0]] (REQUEST)
r 10.339897067 _16_ RTR  --- 0 ZBR 44 [0 10 12 800] ------- [18:255 2:255 30 16] [0x4 1 [18 0] 10.000000] (REPLY)
f 10.339897067 _16_ RTR  --- 0 ZBR 44 [0 10 12 800] ------- [18:255 2:255 29 19] [0x4 2 [18 0] 10.000000] (REPLY)
r 10.342137133 _5_ RTR  --- 0 ZBR 48 [0 ffffffff 6 800] ------- [6:255 -1:255 27 0] [0x2 4 1 [18 0] [2 0]] (REQUEST)
r 10.342137133 _7_ RTR  --- 0 ZBR 48 [0 ffffffff 6 800] ------- [6:255 -1:255 27 0] [0x2 4 1 [18 0] [2 0]] (REQUEST)
s 10.342196033 _17_ RTR  --- 0 ZBR 48 [0 ffffffff 10 800] ------- [17:255 -1:255 27 0] [0x2 4 1 [18 0] [2 0]] (REQUEST)
r 10.344889033 _19_ RTR  --- 0 ZBR 44 [0 13 10 800] ------- [18:255 2:255 29 19] [0x4 2 [18 0] 10.000000] (REPLY)
f 10.344889033 _19_ RTR  --- 0 ZBR 44 [0 13 10 800] ------- [18:255 2:255 28 2] [0x4 3 [18 0] 10.000000] (REPLY)
r 10.347897133 _14_ RTR  --- 0 ZBR 48 [0 ffffffff 11 800] ------- [17:255 -1:255 27 0] [0x2 4 1 [18 0] [2 0]] (REQUEST)
r 10.347897133 _16_ RTR  --- 0 ZBR 48 [0 ffffffff 11 800] ------- [17:255 -1:255 27 0] [0x2 4 1 [18 0] [2 0]] (REQUEST)
r 10.350777067 _2_ RTR  --- 0 ZBR 44 [0 2 13 800] ------- [18:255 2:255 28 2] [0x4 3 [18 0] 10.000000] (REPLY)
s 10.351077067 _2_ RTR  --- 0 ZBR 44 [0 0 0 0] ------- [2:255 18:255 30 19] [0x4 1 [3 0] 10.000000] (REPLY)
s 10.356280091 _14_ RTR  --- 0 ZBR 48 [0 ffffffff 11 800] ------- [14:255 -1:255 26 0] [0x2 5 1 [18 0] [2 0]] (REQUEST)
r 10.356409033 _19_ RTR  --- 0 ZBR 44 [0 13 2 800] ------- [2:255 18:255 30 19] [0x4 1 [3 0] 10.000000] (REPLY)
f 10.356409033 _19_ RTR  --- 0 ZBR 44 [0 13 2 800] ------- [2:255 18:255 29 16] [0x4 2 [3 0] 10.000000] (REPLY)
r 10.361162124 _13_ RTR  --- 0 ZBR 48 [0 ffffffff e 800] ------- [14:255 -1:255 26 0] [0x2 5 1 [18 0] [2 0]] (REQUEST)
r 10.361162124 _15_ RTR  --- 0 ZBR 48 [0 ffffffff e 800] ------- [14:255 -1:255 26 0] [0x2 5 1 [18 0] [2 0]] (REQUEST)
r 10.361162124 _17_ RTR  --- 0 ZBR 48 [0 ffffffff e 800] ------- [14:255 -1:255 26 0] [0x2 5 1 [18 0] [2 0]] (REQUEST)
r 10.362617067 _16_ RTR  --- 0 ZBR 44 [0 10 13 800] ------- [2:255 18:255 29 16] [0x4 2 [3 0] 10.000000] (REPLY)
f 10.362617067 _16_ RTR  --- 0 ZBR 44 [0 10 13 800] ------- [2:255 18:255 28 18] [0x4 3 [3 0] 10.000000] (REPLY)
f 10.365549534 _2_ RTR  --- 0 cbr 100 [0 2 3 800] ------- [3:0 18:0 29 19] [0] 1 0
r 10.368697100 _18_ RTR  --- 0 ZBR 44 [0 12 10 800] ------- [2:255 18:255 28 18] [0x4 3 [3 0] 10.000000] (REPLY)
r 10.372729033 _19_ RTR  --- 0 cbr 100 [0 13 2 800] ------- [3:0 18:0 29 19] [0] 2 0
f 10.372729033 _19_ RTR  --- 0 cbr 100 [0 13 2 800] ------- [3:0 18:0 28 16] [0] 2 0
r 10.380217067 _16_ RTR  --- 0 cbr 100 [0 10 13 800] ------- [3:0 18:0 28 16] [0] 3 0
f 10.380217067 _16_ RTR  --- 0 cbr 100 [0 10 13 800] ------- [3:0 18:0 27 18] [0] 3 0
r 10.500000000 _3_ RTR  --- 1 cbr 80 [0 0 0 0] ------- [3:0 18:0 32 0] [1] 0 0
s 10.500000000 _3_ RTR  --- 1 cbr 100 [0 0 0 0] ------- [3:0 18:0 30 2] [1] 0 0
r 10.505657067 _2_ RTR  --- 1 cbr 100 [0 2 3 800] ------- [3:0 18:0 30 2] [1] 1 0
f 10.505657067 _2_ RTR  --- 1 cbr 100 [0 2 3 800] ------- [3:0 18:0 29 19] [1] 1 0
r 10.512985100 _19_ RTR  --- 1 cbr 100 [0 13 2 800] ------- [3:0 18:0 29 19] [1] 2 0
f 10.512985100 _19_ RTR  --- 1 cbr 100 [0 13 2 800] ------- [3:0 18:0 28 16] [1] 2 0
r 10.519417067 _16_ RTR  --- 1 cbr 100 [0 10 13 800] ------- [3:0 18:0 28 16] [1] 3 0
f 10.519417067 _16_ RTR  --- 1 cbr 100 [0 10 13 800] ------- [3:0 18:0 27 18] [1] 3 0
r 10.600000000 _9_ RTR  --- 2 cbr 80 [0 0 0 0] ------- [9:0 17:0 32 0] [0] 0 0
v 10.6 eval {set sim_annotation {(at 10.6) cbr traffic from node 9 to node 17}}
s 10.600000000 _9_ RTR  --- 2 cbr 100 [0 0 0 0] ------- [9:0 17:0 30 0] [0] 0 0
r 10.606450033 _0_ RTR  --- 2 cbr 100 [0 0 9 800] ------- [9:0 17:0 30 0] [0] 1 0
s 10.606450033 _0_ RTR  --- 0 ZBR 48 [0 0 0 0] ------- [0:255 -1:255 30 0] [0x2 1 1 [17 0] [0 0]] (REQUEST)
r 10.611012067 _9_ RTR  --- 0 ZBR 48 [0 ffffffff 0 800] ------- [0:255 -1:255 30 0] [0x2 1 1 [17 0] [0 0]] (REQUEST)
r 10.611012067 _13_ RTR  --- 0 ZBR 48 [0 ffffffff 0 800] ------- [0:255 -1:255 30 0] [0x2 1 1 [17 0] [0 0]] (REQUEST)
r 10.700000000 _3_ RTR  --- 3 cbr 80 [0 0 0 0] ------- [3:0 18:0 32 0] [2] 0 0
s 10.700000000 _3_ RTR  --- 3 cbr 100 [0 0 0 0] ------- [3:0 18:0 30 2] [2] 0 0
r 10.705657067 _2_ RTR  --- 3 cbr 100 [0 2 3 800] ------- [3:0 18:0 30 2] [2] 1 0
f 10.705657067 _2_ RTR  --- 3 cbr 100 [0 2 3 800] ------- [3:0 18:0 29 19] [2] 1 0
r 10.713625100 _19_ RTR  --- 3 cbr 100 [0 13 2 800] ------- [3:0 18:0 29 19] [2] 2 0
f 10.713625100 _19_ RTR  --- 3 cbr 100 [0 13 2 800] ------- [3:0 18:0 28 16] [2] 2 0
r 10.720377067 _16_ RTR  --- 3 cbr 100 [0 10 13 800] ------- [3:0 18:0 28 16] [2] 3 0
f 10.720377067 _16_ RTR  --- 3 cbr 100 [0 10 13 800] ------- [3:0 18:0 27 18] [2] 3 0
r 10.800000000 _9_ RTR  --- 4 cbr 80 [0 0 0 0] ------- [9:0 17:0 32 0] [1] 0 0
s 10.800000000 _9_ RTR  --- 4 cbr 100 [0 0 0 0] ------- [9:0 17:0 30 0] [1] 0 0
r 10.805810033 _0_ RTR  --- 4 cbr 100 [0 0 9 800] ------- [9:0 17:0 30 0] [1] 1 0
r 10.900000000 _3_ RTR  --- 5 cbr 80 [0 0 0 0] ------- [3:0 18:0 32 0] [3] 0 0
s 10.900000000 _3_ RTR  --- 5 cbr 100 [0 0 0 0] ------- [3:0 18:0 30 2] [3] 0 0
r 10.907577067 _2_ RTR  --- 5 cbr 100 [0 2 3 800] ------- [3:0 18:0 30 2] [3] 1 0
f 10.907577067 _2_ RTR  --- 5 cbr 100 [0 2 3 800] ------- [3:0 18:0 29 19] [3] 1 0
r 10.914265100 _19_ RTR  --- 5 cbr 100 [0 13 2 800] ------- [3:0 18:0 29 19] [3] 2 0
f 10.914265100 _19_ RTR  --- 5 cbr 100 [0 13 2 800] ------- [3:0 18:0 28 16] [3] 2 0
r 10.921977067 _16_ RTR  --- 5 cbr 100 [0 10 13 800] ------- [3:0 18:0 28 16] [3] 3 0
f 10.921977067 _16_ RTR  --- 5 cbr 100 [0 10 13 800] ------- [3:0 18:0 27 18] [3] 3 0
r 11.000000000 _9_ RTR  --- 6 cbr 80 [0 0 0 0] ------- [9:0 17:0 32 0] [2] 0 0
s 11.000000000 _9_ RTR  --- 6 cbr 100 [0 0 0 0] ------- [9:0 17:0 30 0] [2] 0 0
r 11.007410033 _0_ RTR  --- 6 cbr 100 [0 0 9 800] ------- [9:0 17:0 30 0] [2] 1 0
r 11.100000000 _3_ RTR  --- 7 cbr 80 [0 0 0 0] ------- [3:0 18:0 32 0] [4] 0 0
s 11.100000000 _3_ RTR  --- 7 cbr 100 [0 0 0 0] ------- [3:0 18:0 30 2] [4] 0 0
r 11.107577067 _2_ RTR  --- 7 cbr 100 [0 2 3 800] ------- [3:0 18:0 30 2] [4] 1 0
f 11.107577067 _2_ RTR  --- 7 cbr 100 [0 2 3 800] ------- [3:0 18:0 29 19] [4] 1 0
r 11.122265100 _19_ RTR  --- 7 cbr 100 [0 13 2 800] ------- [3:0 18:0 29 19] [4] 2 0
f 11.122265100 _19_ RTR  --- 7 cbr 100 [0 13 2 800] ------- [3:0 18:0 28 16] [4] 2 0
r 11.129977067 _16_ RTR  --- 7 cbr 100 [0 10 13 800] ------- [3:0 18:0 28 16] [4] 3 0
f 11.129977067 _16_ RTR  --- 7 cbr 100 [0 10 13 800] ------- [3:0 18:0 27 18] [4] 3 0
r 11.200000000 _9_ RTR  --- 8 cbr 80 [0 0 0 0] ------- [9:0 17:0 32 0] [3] 0 0
s 11.200000000 _9_ RTR  --- 8 cbr 100 [0 0 0 0] ------- [9:0 17:0 30 0] [3] 0 0
r 11.205170033 _0_ RTR  --- 8 cbr 100 [0 0 9 800] ------- [9:0 17:0 30 0] [3] 1 0
r 11.300000000 _3_ RTR  --- 9 cbr 80 [0 0 0 0] ------- [3:0 18:0 32 0] [5] 0 0
s 11.300000000 _3_ RTR  --- 9 cbr 100 [0 0 0 0] ------- [3:0 18:0 30 2] [5] 0 0
r 11.306617067 _2_ RTR  --- 9 cbr 100 [0 2 3 800] ------- [3:0 18:0 30 2] [5] 1 0
f 11.306617067 _2_ RTR  --- 9 cbr 100 [0 2 3 800] ------- [3:0 18:0 29 19] [5] 1 0
r 11.314585100 _19_ RTR  --- 9 cbr 100 [0 13 2 800] ------- [3:0 18:0 29 19] [5] 2 0
f 11.314585100 _19_ RTR  --- 9 cbr 100 [0 13 2 800] ------- [3:0 18:0 28 16] [5] 2 0
r 11.321017067 _16_ RTR  --- 9 cbr 100 [0 10 13 800] ------- [3:0 18:0 28 16] [5] 3 0
f 11.321017067 _16_ RTR  --- 9 cbr 100 [0 10 13 800] ------- [3:0 18:0 27 18] [5] 3 0
r 11.400000000 _9_ RTR  --- 10 cbr 80 [0 0 0 0] ------- [9:0 17:0 32 0] [4] 0 0
s 11.400000000 _9_ RTR  --- 10 cbr 100 [0 0 0 0] ------- [9:0 17:0 30 0] [4] 0 0
r 11.406450033 _0_ RTR  --- 10 cbr 100 [0 0 9 800] ------- [9:0 17:0 30 0] [4] 1 0
r 11.500000000 _3_ RTR  --- 11 cbr 80 [0 0 0 0] ------- [3:0 18:0 32 0] [6] 0 0
s 11.500000000 _3_ RTR  --- 11 cbr 100 [0 0 0 0] ------- [3:0 18:0 30 2] [6] 0 0
r 11.506297067 _2_ RTR  --- 11 cbr 100 [0 2 3 800] ------- [3:0 18:0 30 2] [6] 1 0
f 11.506297067 _2_ RTR  --- 11 cbr 100 [0 2 3 800] ------- [3:0 18:0 29 19] [6] 1 0
r 11.512985100 _19_ RTR  --- 11 cbr 100 [0 13 2 800] ------- [3:0 18:0 29 19] [6] 2 0
f 11.512985100 _19_ RTR  --- 11 cbr 100 [0 13 2 800] ------- [3:0 18:0 28 16] [6] 2 0
r 11.520697067 _16_ RTR  --- 11 cbr 100 [0 10 13 800] ------- [3:0 18:0 28 16] [6] 3 0
f 11.520697067 _16_ RTR  --- 11 cbr 100 [0 10 13 800] ------- [3:0 18:0 27 18] [6] 3 0
r 11.600000000 _9_ RTR  --- 12 cbr 80 [0 0 0 0] ------- [9:0 17:0 32 0] [5] 0 0
s 11.600000000 _9_ RTR  --- 12 cbr 100 [0 0 0 0] ------- [9:0 17:0 30 0] [5] 0 0
r 11.606770033 _0_ RTR  --- 12 cbr 100 [0 0 9 800] ------- [9:0 17:0 30 0] [5] 1 0
r 11.700000000 _3_ RTR  --- 13 cbr 80 [0 0 0 0] ------- [3:0 18:0 32 0] [7] 0 0
s 11.700000000 _3_ RTR  --- 13 cbr 100 [0 0 0 0] ------- [3:0 18:0 30 2] [7] 0 0
r 11.705977067 _2_ RTR  --- 13 cbr 100 [0 2 3 800] ------- [3:0 18:0 30 2] [7] 1 0
f 11.705977067 _2_ RTR  --- 13 cbr 100 [0 2 3 800] ------- [3:0 18:0 29 19] [7] 1 0
r 11.713625100 _19_ RTR  --- 13 cbr 100 [0 13 2 800] ------- [3:0 18:0 29 19] [7] 2 0
f 11.713625100 _19_ RTR  --- 13 cbr 100 [0 13 2 800] ------- [3:0 18:0 28 16] [7] 2 0
r 11.720377067 _16_ RTR  --- 13 cbr 100 [0 10 13 800] ------- [3:0 18:0 28 16] [7] 3 0
f 11.720377067 _16_ RTR  --- 13 cbr 100 [0 10 13 800] ------- [3:0 18:0 27 18] [7] 3 0
r 11.800000000 _9_ RTR  --- 14 cbr 80 [0 0 0 0] ------- [9:0 17:0 32 0] [6] 0 0
s 11.800000000 _9_ RTR  --- 14 cbr 100 [0 0 0 0] ------- [9:0 17:0 30 0] [6] 0 0
r 11.805810033 _0_ RTR  --- 14 cbr 100 [0 0 9 800] ------- [9:0 17:0 30 0] [6] 1 0
r 11.900000000 _3_ RTR  --- 15 cbr 80 [0 0 0 0] ------- [3:0 18:0 32 0] [8] 0 0
s 11.900000000 _3_ RTR  --- 15 cbr 100 [0 0 0 0] ------- [3:0 18:0 30 2] [8] 0 0
r 11.907577067 _2_ RTR  --- 15 cbr 100 [0 2 3 800] ------- [3:0 18:0 30 2] [8] 1 0
f 11.907577067 _2_ RTR  --- 15 cbr 100 [0 2 3 800] ------- [3:0 18:0 29 19] [8] 1 0
r 11.913945100 _19_ RTR  --- 15 cbr 100 [0 13 2 800] ------- [3:0 18:0 29 19] [8] 2 0
f 11.913945100 _19_ RTR  --- 15 cbr 100 [0 13 2 800] ------- [3:0 18:0 28 16] [8] 2 0
r 11.919417067 _16_ RTR  --- 15 cbr 100 [0 10 13 800] ------- [3:0 18:0 28 16] [8] 3 0
f 11.919417067 _16_ RTR  --- 15 cbr 100 [0 10 13 800] ------- [3:0 18:0 27 18] [8] 3 0
r 12.000000000 _9_ RTR  --- 16 cbr 80 [0 0 0 0] ------- [9:0 17:0 32 0] [7] 0 0
s 12.000000000 _9_ RTR  --- 16 cbr 100 [0 0 0 0] ------- [9:0 17:0 30 0] [7] 0 0
r 12.007410033 _0_ RTR  --- 16 cbr 100 [0 0 9 800] ------- [9:0 17:0 30 0] [7] 1 0
r 12.100000000 _3_ RTR  --- 17 cbr 80 [0 0 0 0] ------- [3:0 18:0 32 0] [9] 0 0
s 12.100000000 _3_ RTR  --- 17 cbr 100 [0 0 0 0] ------- [3:0 18:0 30 2] [9] 0 0
r 12.106937067 _2_ RTR  --- 17 cbr 100 [0 2 3 800] ------- [3:0 18:0 30 2] [9] 1 0
f 12.106937067 _2_ RTR  --- 17 cbr 100 [0 2 3 800] ------- [3:0 18:0 29 19] [9] 1 0
r 12.113305100 _19_ RTR  --- 17 cbr 100 [0 13 2 800] ------- [3:0 18:0 29 19] [9] 2 0
f 12.113305100 _19_ RTR  --- 17 cbr 100 [0 13 2 800] ------- [3:0 18:0 28 16] [9] 2 0
r 12.121017067 _16_ RTR  --- 17 cbr 100 [0 10 13 800] ------- [3:0 18:0 28 16] [9] 3 0
f 12.121017067 _16_ RTR  --- 17 cbr 100 [0 10 13 800] ------- [3:0 18:0 27 18] [9] 3 0
r 12.200000000 _9_ RTR  --- 18 cbr 80 [0 0 0 0] ------- [9:0 17:0 32 0] [8] 0 0
s 12.200000000 _9_ RTR  --- 18 cbr 100 [0 0 0 0] ------- [9:0 17:0 30 0] [8] 0 0
r 12.205810033 _0_ RTR  --- 18 cbr 100 [0 0 9 800] ------- [9:0 17:0 30 0] [8] 1 0
r 12.300000000 _3_ RTR  --- 19 cbr 80 [0 0 0 0] ------- [3:0 18:0 32 0] [10] 0 0
s 12.300000000 _3_ RTR  --- 19 cbr 100 [0 0 0 0] ------- [3:0 18:0 30 2] [10] 0 0
v 12.300000000000001 eval {set sim_annotation {(at 12.3) link down: 0 -> 19}}
r 12.306617067 _2_ RTR  --- 19 cbr 100 [0 2 3 800] ------- [3:0 18:0 30 2] [10] 1 0
f 12.306617067 _2_ RTR  --- 19 cbr 100 [0 2 3 800] ------- [3:0 18:0 29 19] [10] 1 0
r 12.314585100 _19_ RTR  --- 19 cbr 100 [0 13 2 800] ------- [3:0 18:0 29 19] [10] 2 0
f 12.314585100 _19_ RTR  --- 19 cbr 100 [0 13 2 800] ------- [3:0 18:0 28 16] [10] 2 0
r 12.321657067 _16_ RTR  --- 19 cbr 100 [0 10 13 800] ------- [3:0 18:0 28 16] [10] 3 0
f 12.321657067 _16_ RTR  --- 19 cbr 100 [0 10 13 800] ------- [3:0 18:0 27 18] [10] 3 0
r 12.400000000 _9_ RTR  --- 20 cbr 80 [0 0 0 0] ------- [9:0 17:0 32 0] [9] 0 0
s 12.400000000 _9_ RTR  --- 20 cbr 100 [0 0 0 0] ------- [9:0 17:0 30 0] [9] 0 0
r 12.406130033 _0_ RTR  --- 20 cbr 100 [0 0 9 800] ------- [9:0 17:0 30 0] [9] 1 0
r 12.500000000 _3_ RTR  --- 21 cbr 80 [0 0 0 0] ------- [3:0 18:0 32 0] [11] 0 0
s 12.500000000 _3_ RTR  --- 21 cbr 100 [0 0 0 0] ------- [3:0 18:0 30 2] [11] 0 0
s 12.500000000 _0_ RTR  --- 0 ZBR 48 [0 0 0 0] ------- [0:255 -1:255 30 0] [0x2 1 2 [17 0] [0 0]] (REQUEST)
r 12.503602033 _1_ RTR  --- 0 ZBR 48 [0 ffffffff 0 800] ------- [0:255 -1:255 30 0] [0x2 1 2 [17 0] [0 0]] (REQUEST)
r 12.503602033 _9_ RTR  --- 0 ZBR 48 [0 ffffffff 0 800] ------- [0:255 -1:255 30 0] [0x2 1 2 [17 0] [0 0]] (REQUEST)
r 12.503602033 _13_ RTR  --- 0 ZBR 48 [0 ffffffff 0 800] ------- [0:255 -1:255 30 0] [0x2 1 2 [17 0] [0 0]] (REQUEST)
s 12.504310166 _1_ RTR  --- 0 ZBR 48 [0 ffffffff 0 800] ------- [1:255 -1:255 29 0] [0x2 2 2 [17 0] [0 0]] (REQUEST)
r 12.506297067 _2_ RTR  --- 21 cbr 100 [0 2 3 800] ------- [3:0 18:0 30 2] [11] 1 0
f 12.506297067 _2_ RTR  --- 21 cbr 100 [0 2 3 800] ------- [3:0 18:0 29 19] [11] 1 0
r 12.508552200 _5_ RTR  --- 0 ZBR 48 [0 ffffffff 1 800] ------- [1:255 -1:255 29 0] [0x2 2 2 [17 0] [0 0]] (REQUEST)
r 12.508552200 _2_ RTR  --- 0 ZBR 48 [0 ffffffff 1 800] ------- [1:255 -1:255 29 0] [0x2 2 2 [17 0] [0 0]] (REQUEST)
r 12.508552200 _7_ RTR  --- 0 ZBR 48 [0 ffffffff 1 800] ------- [1:255 -1:255 29 0] [0x2 2 2 [17 0] [0 0]] (REQUEST)
r 12.508552200 _0_ RTR  --- 0 ZBR 48 [0 ffffffff 1 800] ------- [1:255 -1:255 29 0] [0x2 2 2 [17 0] [0 0]] (REQUEST)
s 12.513015087 _5_ RTR  --- 0 ZBR 48 [0 ffffffff 1 800] ------- [5:255 -1:255 28 0] [0x2 3 2 [17 0] [0 0]] (REQUEST)
r 12.513625100 _19_ RTR  --- 21 cbr 100 [0 13 2 800] ------- [3:0 18:0 29 19] [11] 2 0
f 12.513625100 _19_ RTR  --- 21 cbr 100 [0 13 2 800] ------- [3:0 18:0 28 16] [11] 2 0
s 12.514429887 _2_ RTR  --- 0 ZBR 48 [0 ffffffff 1 800] ------- [2:255 -1:255 28 0] [0x2 3 2 [17 0] [0 0]] (REQUEST)
r 12.517897121 _4_ RTR  --- 0 ZBR 48 [0 ffffffff 5 800] ------- [5:255 -1:255 28 0] [0x2 3 2 [17 0] [0 0]] (REQUEST)
r 12.517897121 _6_ RTR  --- 0 ZBR 48 [0 ffffffff 5 800] ------- [5:255 -1:255 28 0] [0x2 3 2 [17 0] [0 0]] (REQUEST)
r 12.517897121 _1_ RTR  --- 0 ZBR 48 [0 ffffffff 5 800] ------- [5:255 -1:255 28 0] [0x2 3 2 [17 0] [0 0]] (REQUEST)
r 12.521337067 _16_ RTR  --- 21 cbr 100 [0 10 13 800] ------- [3:0 18:0 28 16] [11] 3 0
f 12.521337067 _16_ RTR  --- 21 cbr 100 [0 10 13 800] ------- [3:0 18:0 27 18] [11] 3 0
s 12.522822286 _6_ RTR  --- 0 ZBR 48 [0 ffffffff 5 800] ------- [6:255 -1:255 27 0] [0x2 4 2 [17 0] [0 0]] (REQUEST)
r 12.526777133 _5_ RTR  --- 0 ZBR 48 [0 ffffffff 6 800] ------- [6:255 -1:255 27 0] [0x2 4 2 [17 0] [0 0]] (REQUEST)
r 12.526777133 _7_ RTR  --- 0 ZBR 48 [0 ffffffff 6 800] ------- [6:255 -1:255 27 0] [0x2 4 2 [17 0] [0 0]] (REQUEST)
r 12.529337100 _1_ RTR  --- 0 ZBR 48 [0 ffffffff 2 800] ------- [2:255 -1:255 28 0] [0x2 3 2 [17 0] [0 0]] (REQUEST)
r 12.529337100 _4_ RTR  --- 0 ZBR 48 [0 ffffffff 2 800] ------- [2:255 -1:255 28 0] [0x2 3 2 [17 0] [0 0]] (REQUEST)
r 12.529337100 _3_ RTR  --- 0 ZBR 48 [0 ffffffff 2 800] ------- [2:255 -1:255 28 0] [0x2 3 2 [17 0] [0 0]] (REQUEST)
r 12.529337100 _19_ RTR  --- 0 ZBR 48 [0 ffffffff 2 800] ------- [2:255 -1:255 28 0] [0x2 3 2 [17 0] [0 0]] (REQUEST)
s 12.534156760 _19_ RTR  --- 0 ZBR 48 [0 ffffffff 2 800] ------- [19:255 -1:255 27 0] [0x2 4 2 [17 0] [0 0]] (REQUEST)
r 12.538078793 _0_ RTR  --- 0 ZBR 48 [0 ffffffff 13 800] ------- [19:255 -1:255 27 0] [0x2 4 2 [17 0] [0 0]] (REQUEST)
r 12.538078793 _2_ RTR  --- 0 ZBR 48 [0 ffffffff 13 800] ------- [19:255 -1:255 27 0] [0x2 4 2 [17 0] [0 0]] (REQUEST)
r 12.538078793 _20_ RTR  --- 0 ZBR 48 [0 ffffffff 13 800] ------- [19:255 -1:255 27 0] [0x2 4 2 [17 0] [0 0]] (REQUEST)
r 12.538078793 _16_ RTR  --- 0 ZBR 48 [0 ffffffff 13 800] ------- [19:255 -1:255 27 0] [0x2 4 2 [17 0] [0 0]] (REQUEST)
s 12.544084212 _16_ RTR  --- 0 ZBR 48 [0 ffffffff 13 800] ------- [16:255 -1:255 26 0] [0x2 5 2 [17 0] [0 0]] (REQUEST)
r 12.547897100 _13_ RTR  --- 0 ZBR 48 [0 ffffffff 10 800] ------- [16:255 -1:255 26 0] [0x2 5 2 [17 0] [0 0]] (REQUEST)
r 12.547897100 _19_ RTR  --- 0 ZBR 48 [0 ffffffff 10 800] ------- [16:255 -1:255 26 0] [0x2 5 2 [17 0] [0 0]] (REQUEST)
r 12.547897100 _18_ RTR  --- 0 ZBR 48 [0 ffffffff 10 800] ------- [16:255 -1:255 26 0] [0x2 5 2 [17 0] [0 0]] (REQUEST)
r 12.547897100 _17_ RTR  --- 0 ZBR 48 [0 ffffffff 10 800] ------- [16:255 -1:255 26 0] [0x2 5 2 [17 0] [0 0]] (REQUEST)
s 12.548197100 _17_ RTR  --- 0 ZBR 44 [0 0 0 0] ------- [17:255 0:255 30 16] [0x4 1 [17 0] 10.000000] (REPLY)
r 12.554617067 _16_ RTR  --- 0 ZBR 44 [0 10 11 800] ------- [17:255 0:255 30 16] [0x4 1 [17 0] 10.000000] (REPLY)
f 12.554617067 _16_ RTR  --- 0 ZBR 44 [0 10 11 800] ------- [17:255 0:255 29 19] [0x4 2 [17 0] 10.000000] (REPLY)
r 12.560793100 _19_ RTR  --- 0 ZBR 44 [0 13 10 800] ------- [17:255 0:255 29 19] [0x4 2 [17 0] 10.000000] (REPLY)
f 12.560793100 _19_ RTR  --- 0 ZBR 44 [0 13 10 800] ------- [17:255 0:255 28 2] [0x4 3 [17 0] 10.000000] (REPLY)
r 12.564857067 _2_ RTR  --- 0 ZBR 44 [0 2 13 800] ------- [17:255 0:255 28 2] [0x4 3 [17 0] 10.000000] (REPLY)
f 12.564857067 _2_ RTR  --- 0 ZBR 44 [0 2 13 800] ------- [17:255 0:255 27 1] [0x4 4 [17 0] 10.000000] (REPLY)
r 12.570393100 _1_ RTR  --- 0 ZBR 44 [0 1 2 800] ------- [17:255 0:255 27 1] [0x4 4 [17 0] 10.000000] (REPLY)
f 12.570393100 _1_ RTR  --- 0 ZBR 44 [0 1 2 800] ------- [17:255 0:255 26 0] [0x4 5 [17 0] 10.000000] (REPLY)
r 12.574731133 _0_ RTR  --- 0 ZBR 44 [0 0 1 800] ------- [17:255 0:255 26 0] [0x4 5 [17 0] 10.000000] (REPLY)
s 12.575031133 _0_ RTR  --- 0 ZBR 44 [0 0 0 0] ------- [0:255 17:255 30 1] [0x4 1 [9 0] 10.000000] (REPLY)
r 12.584617167 _1_ RTR  --- 0 ZBR 44 [0 1 0 800] ------- [0:255 17:255 30 1] [0x4 1 [9 0] 10.000000] (REPLY)
f 12.584617167 _1_ RTR  --- 0 ZBR 44 [0 1 0 800] ------- [0:255 17:255 29 2] [0x4 2 [9 0] 10.000000] (REPLY)
r 12.590137067 _2_ RTR  --- 0 ZBR 44 [0 2 1 800] ------- [0:255 17:255 29 2] [0x4 2 [9 0] 10.000000] (REPLY)
f 12.590137067 _2_ RTR  --- 0 ZBR 44 [0 2 1 800] ------- [0:255 17:255 28 19] [0x4 3 [9 0] 10.000000] (REPLY)
f 12.590540598 _0_ RTR  --- 2 cbr 100 [0 0 9 800] ------- [9:0 17:0 29 1] [0] 1 0
r 12.595033100 _19_ RTR  --- 0 ZBR 44 [0 13 2 800] ------- [0:255 17:255 28 19] [0x4 3 [9 0] 10.000000] (REPLY)
f 12.595033100 _19_ RTR  --- 0 ZBR 44 [0 13 2 800] ------- [0:255 17:255 27 16] [0x4 4 [9 0] 10.000000] (REPLY)
r 12.599097067 _16_ RTR  --- 0 ZBR 44 [0 10 13 800] ------- [0:255 17:255 27 16] [0x4 4 [9 0] 10.000000] (REPLY)
f 12.599097067 _16_ RTR  --- 0 ZBR 44 [0 10 13 800] ------- [0:255 17:255 26 17] [0x4 5 [9 0] 10.000000] (REPLY)
r 12.600000000 _9_ RTR  --- 22 cbr 80 [0 0 0 0] ------- [9:0 17:0 32 0] [10] 0 0
s 12.600000000 _9_ RTR  --- 22 cbr 100 [0 0 0 0] ------- [9:0 17:0 30 0] [10] 0 0
f 12.600540598 _0_ RTR  --- 4 cbr 100 [0 0 9 800] ------- [9:0 17:0 29 1] [1] 1 0
r 12.603838631 _1_ RTR  --- 2 cbr 100 [0 1 0 800] ------- [9:0 17:0 29 1] [0] 2 0
f 12.603838631 _1_ RTR  --- 2 cbr 100 [0 1 0 800] ------- [9:0 17:0 28 2] [0] 2 0
r 12.605497100 _17_ RTR  --- 0 ZBR 44 [0 11 10 800] ------- [0:255 17:255 26 17] [0x4 5 [9 0] 10.000000] (REPLY)
r 12.609017067 _2_ RTR  --- 2 cbr 100 [0 2 1 800] ------- [9:0 17:0 28 2] [0] 3 0
f 12.609017067 _2_ RTR  --- 2 cbr 100 [0 2 1 800] ------- [9:0 17:0 27 19] [0] 3 0
f 12.610540598 _0_ RTR  --- 6 cbr 100 [0 0 9 800] ------- [9:0 17:0 29 1] [2] 1 0
r 12.614745100 _19_ RTR  --- 2 cbr 100 [0 13 2 800] ------- [9:0 17:0 27 19] [0] 4 0
f 12.614745100 _19_ RTR  --- 2 cbr 100 [0 13 2 800] ------- [9:0 17:0 26 16] [0] 4 0
f 12.620540598 _0_ RTR  --- 8 cbr 100 [0 0 9 800] ------- [9:0 17:0 29 1] [3] 1 0
r 12.620857067 _16_ RTR  --- 2 cbr 100 [0 10 13 800] ------- [9:0 17:0 26 16] [0] 5 0
f 12.620857067 _16_ RTR  --- 2 cbr 100 [0 10 13 800] ------- [9:0 17:0 25 17] [0] 5 0
r 12.627710698 _1_ RTR  --- 4 cbr 100 [0 1 0 800] ------- [9:0 17:0 29 1] [1] 2 0
f 12.627710698 _1_ RTR  --- 4 cbr 100 [0 1 0 800] ------- [9:0 17:0 28 2] [1] 2 0
f 12.630540598 _0_ RTR  --- 10 cbr 100 [0 0 9 800] ------- [9:0 17:0 29 1] [4] 1 0
D 12.631449000 _9_ RTR  CBK 22 cbr 100 [0 0 9 800] ------- [9:0 17:0 30 0] [10] 0 0
r 12.633657067 _2_ RTR  --- 4 cbr 100 [0 2 1 800] ------- [9:0 17:0 28 2] [1] 3 0
f 12.633657067 _2_ RTR  --- 4 cbr 100 [0 2 1 800] ------- [9:0 17:0 27 19] [1] 3 0
f 12.640540598 _0_ RTR  --- 12 cbr 100 [0 0 9 800] ------- [9:0 17:0 29 1] [5] 1 0
r 12.640665100 _19_ RTR  --- 4 cbr 100 [0 13 2 800] ------- [9:0 17:0 27 19] [1] 4 0
f 12.640665100 _19_ RTR  --- 4 cbr 100 [0 13 2 800] ------- [9:0 17:0 26 16] [1] 4 0
r 12.646457067 _16_ RTR  --- 4 cbr 100 [0 10 13 800] ------- [9:0 17:0 26 16] [1] 5 0
f 12.646457067 _16_ RTR  --- 4 cbr 100 [0 10 13 800] ------- [9:0 17:0 25 17] [1] 5 0
f 12.650540598 _0_ RTR  --- 14 cbr 100 [0 0 9 800] ------- [9:0 17:0 29 1] [6] 1 0
r 12.658110764 _1_ RTR  --- 6 cbr 100 [0 1 0 800] ------- [9:0 17:0 29 1] [2] 2 0
f 12.658110764 _1_ RTR  --- 6 cbr 100 [0 1 0 800] ------- [9:0 17:0 28 2] [2] 2 0
f 12.660540598 _0_ RTR  --- 16 cbr 100 [0 0 9 800] ------- [9:0 17:0 29 1] [7] 1 0
r 12.664377067 _2_ RTR  --- 6 cbr 100 [0 2 1 800] ------- [9:0 17:0 28 2] [2] 3 0
f 12.664377067 _2_ RTR  --- 6 cbr 100 [0 2 1 800] ------- [9:0 17:0 27 19] [2] 3 0
f 12.670540598 _0_ RTR  --- 18 cbr 100 [0 0 9 800] ------- [9:0 17:0 29 1] [8] 1 0
r 12.671385100 _19_ RTR  --- 6 cbr 100 [0 13 2 800] ------- [9:0 17:0 27 19] [2] 4 0
f 12.671385100 _19_ RTR  --- 6 cbr 100 [0 13 2 800] ------- [9:0 17:0 26 16] [2] 4 0
r 12.675838831 _1_ RTR  --- 8 cbr 100 [0 1 0 800] ------- [9:0 17:0 29 1] [3] 2 0
f 12.675838831 _1_ RTR  --- 8 cbr 100 [0 1 0 800] ------- [9:0 17:0 28 2] [3] 2 0
r 12.677497067 _16_ RTR  --- 6 cbr 100 [0 10 13 800] ------- [9:0 17:0 26 16] [2] 5 0
f 12.677497067 _16_ RTR  --- 6 cbr 100 [0 10 13 800] ------- [9:0 17:0 25 17] [2] 5 0
f 12.680540598 _0_ RTR  --- 20 cbr 100 [0 0 9 800] ------- [9:0 17:0 29 1] [9] 1 0
r 12.686718898 _1_ RTR  --- 10 cbr 100 [0 1 0 800] ------- [9:0 17:0 29 1] [4] 2 0
f 12.686718898 _1_ RTR  --- 10 cbr 100 [0 1 0 800] ------- [9:0 17:0 28 2] [4] 2 0
r 12.691198964 _1_ RTR  --- 12 cbr 100 [0 1 0 800] ------- [9:0 17:0 29 1] [5] 2 0
f 12.691198964 _1_ RTR  --- 12 cbr 100 [0 1 0 800] ------- [9:0 17:0 28 2] [5] 2 0
r 12.695999031 _1_ RTR  --- 14 cbr 100 [0 1 0 800] ------- [9:0 17:0 29 1] [6] 2 0
f 12.695999031 _1_ RTR  --- 14 cbr 100 [0 1 0 800] ------- [9:0 17:0 28 2] [6] 2 0
r 12.700000000 _3_ RTR  --- 23 cbr 80 [0 0 0 0] ------- [3:0 18:0 32 0] [12] 0 0
s 12.700000000 _3_ RTR  --- 23 cbr 100 [0 0 0 0] ------- [3:0 18:0 30 2] [12] 0 0
r 12.700479098 _1_ RTR  --- 16 cbr 100 [0 1 0 800] ------- [9:0 17:0 29 1] [7] 2 0
f 12.700479098 _1_ RTR  --- 16 cbr 100 [0 1 0 800] ------- [9:0 17:0 28 2] [7] 2 0
r 12.710079164 _1_ RTR  --- 18 cbr 100 [0 1 0 800] ------- [9:0 17:0 29 1] [8] 2 0
f 12.710079164 _1_ RTR  --- 18 cbr 100 [0 1 0 800] ------- [9:0 17:0 28 2] [8] 2 0
r 12.719167231 _1_ RTR  --- 20 cbr 100 [0 1 0 800] ------- [9:0 17:0 29 1] [9] 2 0
f 12.719167231 _1_ RTR  --- 20 cbr 100 [0 1 0 800] ------- [9:0 17:0 28 2] [9] 2 0
D 12.726400100 _3_ RTR  CBK 23 cbr 100 [0 2 3 800] ------- [3:0 18:0 30 2] [12] 0 0
r 12.732217067 _2_ RTR  --- 8 cbr 100 [0 2 1 800] ------- [9:0 17:0 28 2] [3] 3 0
f 12.732217067 _2_ RTR  --- 8 cbr 100 [0 2 1 800] ------- [9:0 17:0 27 19] [3] 3 0
r 12.737977133 _2_ RTR  --- 10 cbr 100 [0 2 1 800] ------- [9:0 17:0 28 2] [4] 3 0
f 12.737977133 _2_ RTR  --- 10 cbr 100 [0 2 1 800] ------- [9:0 17:0 27 19] [4] 3 0
r 12.742457200 _2_ RTR  --- 12 cbr 100 [0 2 1 800] ------- [9:0 17:0 28 2] [5] 3 0
f 12.742457200 _2_ RTR  --- 12 cbr 100 [0 2 1 800] ------- [9:0 17:0 27 19] [5] 3 0
r 12.747545100 _19_ RTR  --- 8 cbr 100 [0 13 2 800] ------- [9:0 17:0 27 19] [3] 4 0
f 12.747545100 _19_ RTR  --- 8 cbr 100 [0 13 2 800] ------- [9:0 17:0 26 16] [3] 4 0
r 12.753305100 _19_ RTR  --- 10 cbr 100 [0 13 2 800] ------- [9:0 17:0 27 19] [4] 4 0
f 12.753305100 _19_ RTR  --- 10 cbr 100 [0 13 2 800] ------- [9:0 17:0 26 16] [4] 4 0
r 12.759097067 _16_ RTR  --- 8 cbr 100 [0 10 13 800] ------- [9:0 17:0 26 16] [3] 5 0
f 12.759097067 _16_ RTR  --- 8 cbr 100 [0 10 13 800] ------- [9:0 17:0 25 17] [3] 5 0
r 12.765817133 _16_ RTR  --- 10 cbr 100 [0 10 13 800] ------- [9:0 17:0 26 16] [4] 5 0
f 12.765817133 _16_ RTR  --- 10 cbr 100 [0 10 13 800] ------- [9:0 17:0 25 17] [4] 5 0
r 12.774777067 _2_ RTR  --- 14 cbr 100 [0 2 1 800] ------- [9:0 17:0 28 2] [6] 3 0
f 12.774777067 _2_ RTR  --- 14 cbr 100 [0 2 1 800] ------- [9:0 17:0 27 19] [6] 3 0
r 12.786617067 _2_ RTR  --- 16 cbr 100 [0 2 1 800] ------- [9:0 17:0 28 2] [7] 3 0
f 12.786617067 _2_ RTR  --- 16 cbr 100 [0 2 1 800] ------- [9:0 17:0 27 19] [7] 3 0
r 12.793017133 _2_ RTR  --- 18 cbr 100 [0 2 1 800] ------- [9:0 17:0 28 2] [8] 3 0
f 12.793017133 _2_ RTR  --- 18 cbr 100 [0 2 1 800] ------- [9:0 17:0 27 19] [8] 3 0
r 12.798777200 _2_ RTR  --- 20 cbr 100 [0 2 1 800] ------- [9:0 17:0 28 2] [9] 3 0
f 12.798777200 _2_ RTR  --- 20 cbr 100 [0 2 1 800] ------- [9:0 17:0 27 19] [9] 3 0
r 12.800000000 _9_ RTR  --- 24 cbr 80 [0 0 0 0] ------- [9:0 17:0 32 0] [11] 0 0
s 12.800000000 _9_ RTR  --- 24 cbr 100 [0 0 0 0] ------- [9:0 17:0 30 0] [11] 0 0
r 12.804825100 _19_ RTR  --- 12 cbr 100 [0 13 2 800] ------- [9:0 17:0 27 19] [5] 4 0
f 12.804825100 _19_ RTR  --- 12 cbr 100 [0 13 2 800] ------- [9:0 17:0 26 16] [5] 4 0
r 12.810585100 _19_ RTR  --- 14 cbr 100 [0 13 2 800] ------- [9:0 17:0 27 19] [6] 4 0
f 12.810585100 _19_ RTR  --- 14 cbr 100 [0 13 2 800] ------- [9:0 17:0 26 16] [6] 4 0
r 12.815737067 _16_ RTR  --- 12 cbr 100 [0 10 13 800] ------- [9:0 17:0 26 16] [5] 5 0
f 12.815737067 _16_ RTR  --- 12 cbr 100 [0 10 13 800] ------- [9:0 17:0 25 17] [5] 5 0
r 12.823090033 _0_ RTR  --- 24 cbr 100 [0 0 9 800] ------- [9:0 17:0 30 0] [11] 1 0
f 12.823090033 _0_ RTR  --- 24 cbr 100 [0 0 9 800] ------- [9:0 17:0 29 1] [11] 1 0
r 12.827865100 _19_ RTR  --- 16 cbr 100 [0 13 2 800] ------- [9:0 17:0 27 19] [7] 4 0
f 12.827865100 _19_ RTR  --- 16 cbr 100 [0 13 2 800] ------- [9:0 17:0 26 16] [7] 4 0
r 12.841017067 _16_ RTR  --- 14 cbr 100 [0 10 13 800] ------- [9:0 17:0 26 16] [6] 5 0
f 12.841017067 _16_ RTR  --- 14 cbr 100 [0 10 13 800] ------- [9:0 17:0 25 17] [6] 5 0
r 12.847737133 _16_ RTR  --- 16 cbr 100 [0 10 13 800] ------- [9:0 17:0 26 16] [7] 5 0
f 12.847737133 _16_ RTR  --- 16 cbr 100 [0 10 13 800] ------- [9:0 17:0 25 17] [7] 5 0
D 12.851851033 _0_ RTR  CBK 24 cbr 100 [0 1 0 800] ------- [9:0 17:0 29 1] [11] 1 0
D 12.854720067 _2_ RTR  CBK 18 cbr 100 [0 13 2 800] ------- [9:0 17:0 27 19] [8] 3 0
r 12.868825100 _19_ RTR  --- 20 cbr 100 [0 13 2 800] ------- [9:0 17:0 27 19] [9] 4 0
f 12.868825100 _19_ RTR  --- 20 cbr 100 [0 13 2 800] ------- [9:0 17:0 26 16] [9] 4 0