# nam4wpan #
c -t * -i 32 -n tomato
c -t * -i 33 -n green
c -t * -i 34 -n navy
c -t * -i 35 -n blue
c -t * -i 36 -n green4
n -t * -s 0  -x 20 -y 25 -Z 0 -z 2  -v circle -c black
n -t * -s 1  -x 10 -y 25 -Z 0 -z 2  -v circle -c black
n -t * -s 2  -x 10 -y 15 -Z 0 -z 2  -v circle -c black
n -t * -s 3  -x 10 -y 5 -Z 0 -z 2  -v circle -c black
n -t * -s 4  -x 0 -y 15 -Z 0 -z 2  -v circle -c black
n -t * -s 5  -x 0 -y 25 -Z 0 -z 2  -v circle -c black
n -t * -s 6  -x 0 -y 35 -Z 0 -z 2  -v circle -c black
n -t * -s 7  -x 10 -y 35 -Z 0 -z 2  -v circle -c black
n -t * -s 8  -x 10 -y 45 -Z 0 -z 2  -v circle -c black
n -t * -s 9  -x 20 -y 35 -Z 0 -z 2  -v circle -c black
n -t * -s 10  -x 20 -y 45 -Z 0 -z 2  -v circle -c black
n -t * -s 11  -x 30 -y 35 -Z 0 -z 2  -v circle -c black
n -t * -s 12  -x 30 -y 45 -Z 0 -z 2  -v circle -c black
n -t * -s 13  -x 30 -y 25 -Z 0 -z 2  -v circle -c black
n -t * -s 14  -x 40 -y 25 -Z 0 -z 2  -v circle -c black
n -t * -s 15  -x 40 -y 35 -Z 0 -z 2  -v circle -c black
n -t * -s 16  -x 30 -y 15 -Z 0 -z 2  -v circle -c black
n -t * -s 17  -x 40 -y 15 -Z 0 -z 2  -v circle -c black
n -t * -s 18  -x 30 -y 5 -Z 0 -z 2  -v circle -c black
n -t * -s 19  -x 20 -y 15 -Z 0 -z 2  -v circle -c black
n -t * -s 20  -x 20 -y 5 -Z 0 -z 2  -v circle -c black
V -t * -v 1.0a5 -a 0
W -t * -x 50 -y 50
A -t * -n 1 -p 0 -o 0x7fffffff -c 30 -a 1
A -t * -h 1 -m 1073741823 -s 0
v -t 0 -e sim_annotation 0 1 Cm = 4, Lm = 3, BlockSize = 85, CSkip0 = 21, CSkip1 = 5, CSkip2 = 1
v -t 0.000000000 -e set_rate_ext 4ms 1
n -t 0.000000000 -s 0 -S DLABEL -l "PAN Coor" -L ""
n -t 0.000000000 -s 1 -S DLABEL -l "+" -L ""
n -t 0.000000000 -s 2 -S DLABEL -l "+" -L ""
n -t 0.000000000 -s 3 -S DLABEL -l "-" -L ""
n -t 0.000000000 -s 4 -S DLABEL -l "-" -L ""
n -t 0.000000000 -s 5 -S DLABEL -l "+" -L ""
n -t 0.000000000 -s 6 -S DLABEL -l "+" -L ""
n -t 0.000000000 -s 7 -S DLABEL -l "-" -L ""
n -t 0.000000000 -s 8 -S DLABEL -l "-" -L ""
n -t 0.000000000 -s 9 -S DLABEL -l "-" -L ""
n -t 0.000000000 -s 10 -S DLABEL -l "-" -L ""
n -t 0.000000000 -s 11 -S DLABEL -l "+" -L ""
n -t 0.000000000 -s 12 -S DLABEL -l "+" -L ""
n -t 0.000000000 -s 13 -S DLABEL -l "-" -L ""
n -t 0.000000000 -s 14 -S DLABEL -l "+" -L ""
n -t 0.000000000 -s 15 -S DLABEL -l "-" -L ""
n -t 0.000000000 -s 16 -S DLABEL -l "+" -L ""
n -t 0.000000000 -s 17 -S DLABEL -l "+" -L ""
n -t 0.000000000 -s 18 -S DLABEL -l "-" -L ""
n -t 0.000000000 -s 19 -S DLABEL -l "+" -L ""
n -t 0.000000000 -s 20 -S DLABEL -l "-" -L ""
n -t 0.420800001 -s 0 -S COLOR -c tomato -o black
n -t 0.450801001 -s 0 -S COLOR -c tomato -o tomato
n -t 1.586368034 -s 1 -S COLOR -c blue -o black
n -t 1.586368034 -s 1 -S DLABEL -l "+1 (0.1)" -L "+"
n -t 1.616369034 -s 1 -S COLOR -c blue -o blue
n -t 1.660368033 -s 1 -S COLOR -i LightGrey -I black -c blue -o blue
n -t 1.670368033 -s 1 -S COLOR -i black -I LightGrey -c blue -o blue
n -t 1.783248033 -s 1 -S COLOR -i LightGrey -I black -c blue -o blue
n -t 1.793248033 -s 1 -S COLOR -i black -I LightGrey -c blue -o blue
n -t 1.906128033 -s 1 -S COLOR -i LightGrey -I black -c blue -o blue
n -t 1.916128033 -s 1 -S COLOR -i black -I LightGrey -c blue -o blue
n -t 2.029008033 -s 1 -S COLOR -i LightGrey -I black -c blue -o blue
n -t 2.039008033 -s 1 -S COLOR -i black -I LightGrey -c blue -o blue
n -t 2.152144033 -s 1 -S COLOR -i LightGrey -I black -c blue -o blue
n -t 2.162144033 -s 1 -S COLOR -i black -I LightGrey -c blue -o blue
n -t 2.275024033 -s 1 -S COLOR -i LightGrey -I black -c blue -o blue
n -t 2.285024033 -s 1 -S COLOR -i black -I LightGrey -c blue -o blue
n -t 2.397904033 -s 1 -S COLOR -i LightGrey -I black -c blue -o blue
n -t 2.407904033 -s 1 -S COLOR -i black -I LightGrey -c blue -o blue
n -t 2.520784033 -s 1 -S COLOR -i LightGrey -I black -c blue -o blue
n -t 2.530784033 -s 1 -S COLOR -i black -I LightGrey -c blue -o blue
n -t 2.587648034 -s 9 -S COLOR -c blue -o black
n -t 2.587648034 -s 9 -S DLABEL -l "-22 (0.1)" -L "-"
n -t 2.617649034 -s 9 -S COLOR -c blue -o blue
n -t 2.643408033 -s 1 -S COLOR -i LightGrey -I black -c blue -o blue
n -t 2.643408033 -s 9 -S COLOR -i LightGrey -I black -c blue -o blue
n -t 2.653408033 -s 1 -S COLOR -i black -I LightGrey -c blue -o blue
n -t 2.653408033 -s 9 -S COLOR -i black -I LightGrey -c blue -o blue
n -t 2.766288033 -s 1 -S COLOR -i LightGrey -I black -c blue -o blue
n -t 2.766288033 -s 9 -S COLOR -i LightGrey -I black -c blue -o blue
n -t 2.776288033 -s 1 -S COLOR -i black -I LightGrey -c blue -o blue
n -t 2.776288033 -s 9 -S COLOR -i black -I LightGrey -c blue -o blue
n -t 2.889168033 -s 1 -S COLOR -i LightGrey -I black -c blue -o blue
n -t 2.889168033 -s 9 -S COLOR -i LightGrey -I black -c blue -o blue
n -t 2.899168033 -s 1 -S COLOR -i black -I LightGrey -c blue -o blue
n -t 2.899168033 -s 9 -S COLOR -i black -I LightGrey -c blue -o blue
n -t 3.012048033 -s 1 -S COLOR -i LightGrey -I black -c blue -o blue
n -t 3.012048033 -s 9 -S COLOR -i LightGrey -I black -c blue -o blue
n -t 3.022048033 -s 1 -S COLOR -i black -I LightGrey -c blue -o blue
n -t 3.022048033 -s 9 -S COLOR -i black -I LightGrey -c blue -o blue
n -t 3.135184033 -s 1 -S COLOR -i LightGrey -I black -c blue -o blue
n -t 3.135184033 -s 9 -S COLOR -i LightGrey -I black -c blue -o blue
n -t 3.145184033 -s 1 -S COLOR -i black -I LightGrey -c blue -o blue
n -t 3.145184033 -s 9 -S COLOR -i black -I LightGrey -c blue -o blue
n -t 3.258064033 -s 1 -S COLOR -i LightGrey -I black -c blue -o blue
n -t 3.258064033 -s 9 -S COLOR -i LightGrey -I black -c blue -o blue
n -t 3.268064033 -s 1 -S COLOR -i black -I LightGrey -c blue -o blue
n -t 3.268064033 -s 9 -S COLOR -i black -I LightGrey -c blue -o blue
n -t 3.380944033 -s 1 -S COLOR -i LightGrey -I black -c blue -o blue
n -t 3.380944033 -s 9 -S COLOR -i LightGrey -I black -c blue -o blue
n -t 3.390944033 -s 1 -S COLOR -i black -I LightGrey -c blue -o blue
n -t 3.390944033 -s 9 -S COLOR -i black -I LightGrey -c blue -o blue
n -t 3.503824033 -s 1 -S COLOR -i LightGrey -I black -c blue -o blue
n -t 3.503824033 -s 9 -S COLOR -i LightGrey -I black -c blue -o blue
n -t 3.513824033 -s 1 -S COLOR -i black -I LightGrey -c blue -o blue
n -t 3.513824033 -s 9 -S COLOR -i black -I LightGrey -c blue -o blue
n -t 3.587648034 -s 19 -S COLOR -c blue -o black
n -t 3.587648034 -s 19 -S DLABEL -l "+64 (0.1)" -L "+"
n -t 3.617649034 -s 19 -S COLOR -c blue -o blue
n -t 3.626448033 -s 1 -S COLOR -i LightGrey -I black -c blue -o blue
n -t 3.626448033 -s 9 -S COLOR -i LightGrey -I black -c blue -o blue
n -t 3.626448033 -s 19 -S COLOR -i LightGrey -I black -c blue -o blue
n -t 3.636448033 -s 1 -S COLOR -i black -I LightGrey -c blue -o blue
n -t 3.636448033 -s 9 -S COLOR -i black -I LightGrey -c blue -o blue
n -t 3.636448033 -s 19 -S COLOR -i black -I LightGrey -c blue -o blue
n -t 3.749328033 -s 1 -S COLOR -i LightGrey -I black -c blue -o blue
n -t 3.749328033 -s 9 -S COLOR -i LightGrey -I black -c blue -o blue
n -t 3.749328033 -s 19 -S COLOR -i LightGrey -I black -c blue -o blue
n -t 3.759328033 -s 1 -S COLOR -i black -I LightGrey -c blue -o blue
n -t 3.759328033 -s 9 -S COLOR -i black -I LightGrey -c blue -o blue
n -t 3.759328033 -s 19 -S COLOR -i black -I LightGrey -c blue -o blue
n -t 3.872208033 -s 1 -S COLOR -i LightGrey -I black -c blue -o blue
n -t 3.872208033 -s 9 -S COLOR -i LightGrey -I black -c blue -o blue
n -t 3.872208033 -s 19 -S COLOR -i LightGrey -I black -c blue -o blue
n -t 3.882208033 -s 1 -S COLOR -i black -I LightGrey -c blue -o blue
n -t 3.882208033 -s 9 -S COLOR -i black -I LightGrey -c blue -o blue
n -t 3.882208033 -s 19 -S COLOR -i black -I LightGrey -c blue -o blue
n -t 3.995088033 -s 1 -S COLOR -i LightGrey -I black -c blue -o blue
n -t 3.995088033 -s 9 -S COLOR -i LightGrey -I black -c blue -o blue
n -t 3.995088033 -s 19 -S COLOR -i LightGrey -I black -c blue -o blue
n -t 4.005088033 -s 1 -S COLOR -i black -I LightGrey -c blue -o blue
n -t 4.005088033 -s 9 -S COLOR -i black -I LightGrey -c blue -o blue
n -t 4.005088033 -s 19 -S COLOR -i black -I LightGrey -c blue -o blue
n -t 4.117968033 -s 1 -S COLOR -i LightGrey -I black -c blue -o blue
n -t 4.117968033 -s 9 -S COLOR -i LightGrey -I black -c blue -o blue
n -t 4.117968033 -s 19 -S COLOR -i LightGrey -I black -c blue -o blue
n -t 4.127968033 -s 1 -S COLOR -i black -I LightGrey -c blue -o blue
n -t 4.127968033 -s 9 -S COLOR -i black -I LightGrey -c blue -o blue
n -t 4.127968033 -s 19 -S COLOR -i black -I LightGrey -c blue -o blue
n -t 4.240848033 -s 1 -S COLOR -i LightGrey -I black -c blue -o blue
n -t 4.240848033 -s 9 -S COLOR -i LightGrey -I black -c blue -o blue
n -t 4.240848033 -s 19 -S COLOR -i LightGrey -I black -c blue -o blue
n -t 4.250848033 -s 1 -S COLOR -i black -I LightGrey -c blue -o blue
n -t 4.250848033 -s 9 -S COLOR -i black -I LightGrey -c blue -o blue
n -t 4.250848033 -s 19 -S COLOR -i black -I LightGrey -c blue -o blue
n -t 4.363728033 -s 1 -S COLOR -i LightGrey -I black -c blue -o blue
n -t 4.363728033 -s 9 -S COLOR -i LightGrey -I black -c blue -o blue
n -t 4.363728033 -s 19 -S COLOR -i LightGrey -I black -c blue -o blue
n -t 4.373728033 -s 1 -S COLOR -i black -I LightGrey -c blue -o blue
n -t 4.373728033 -s 9 -S COLOR -i black -I LightGrey -c blue -o blue
n -t 4.373728033 -s 19 -S COLOR -i black -I LightGrey -c blue -o blue
n -t 4.486608033 -s 1 -S COLOR -i LightGrey -I black -c blue -o blue
n -t 4.486608033 -s 9 -S COLOR -i LightGrey -I black -c blue -o blue
n -t 4.486608033 -s 19 -S COLOR -i LightGrey -I black -c blue -o blue
n -t 4.496608033 -s 1 -S COLOR -i black -I LightGrey -c blue -o blue
n -t 4.496608033 -s 9 -S COLOR -i black -I LightGrey -c blue -o blue
n -t 4.496608033 -s 19 -S COLOR -i black -I LightGrey -c blue -o blue
n -t 4.588608068 -s 2 -S COLOR -c blue -o black
n -t 4.588608068 -s 2 -S DLABEL -l "+2 (1.2)" -L "+"
n -t 4.609488033 -s 1 -S COLOR -i LightGrey -I black -c blue -o blue
n -t 4.609488033 -s 9 -S COLOR -i LightGrey -I black -c blue -o blue
n -t 4.609488033 -s 19 -S COLOR -i LightGrey -I black -c blue -o blue
n -t 4.618609068 -s 2 -S COLOR -c blue -o blue
n -t 4.619488033 -s 1 -S COLOR -i black -I LightGrey -c blue -o blue
n -t 4.619488033 -s 9 -S COLOR -i black -I LightGrey -c blue -o blue
n -t 4.619488033 -s 19 -S COLOR -i black -I LightGrey -c blue -o blue
n -t 4.732368033 -s 1 -S COLOR -i LightGrey -I black -c blue -o blue
n -t 4.732368033 -s 9 -S COLOR -i LightGrey -I black -c blue -o blue
n -t 4.732368033 -s 19 -S COLOR -i LightGrey -I black -c blue -o blue
n -t 4.742368033 -s 1 -S COLOR -i black -I LightGrey -c blue -o blue
n -t 4.742368033 -s 9 -S COLOR -i black -I LightGrey -c blue -o blue
n -t 4.742368033 -s 19 -S COLOR -i black -I LightGrey -c blue -o blue
n -t 4.789248068 -s 7 -S COLOR -c blue -o black
n -t 4.789248068 -s 7 -S DLABEL -l "-23 (22.2)" -L "-"
n -t 4.819249068 -s 7 -S COLOR -c blue -o blue
n -t 4.855248033 -s 1 -S COLOR -i LightGrey -I black -c blue -o blue
n -t 4.855248033 -s 9 -S COLOR -i LightGrey -I black -c blue -o blue
n -t 4.855248033 -s 19 -S COLOR -i LightGrey -I black -c blue -o blue
n -t 4.865248033 -s 1 -S COLOR -i black -I LightGrey -c blue -o blue
n -t 4.865248033 -s 9 -S COLOR -i black -I LightGrey -c blue -o blue
n -t 4.865248033 -s 19 -S COLOR -i black -I LightGrey -c blue -o blue
n -t 4.978128033 -s 1 -S COLOR -i LightGrey -I black -c blue -o blue
n -t 4.978128033 -s 9 -S COLOR -i LightGrey -I black -c blue -o blue
n -t 4.978128033 -s 19 -S COLOR -i LightGrey -I black -c blue -o blue
n -t 4.988128033 -s 1 -S COLOR -i black -I LightGrey -c blue -o blue
n -t 4.988128033 -s 9 -S COLOR -i black -I LightGrey -c blue -o blue
n -t 4.988128033 -s 19 -S COLOR -i black -I LightGrey -c blue -o blue
n -t 5.089088068 -s 16 -S COLOR -c blue -o black
n -t 5.089088068 -s 16 -S DLABEL -l "+65 (64.2)" -L "+"
n -t 5.101008033 -s 1 -S COLOR -i LightGrey -I black -c blue -o blue
n -t 5.101008033 -s 9 -S COLOR -i LightGrey -I black -c blue -o blue
n -t 5.101008033 -s 19 -S COLOR -i LightGrey -I black -c blue -o blue
n -t 5.111008033 -s 1 -S COLOR -i black -I LightGrey -c blue -o blue
n -t 5.111008033 -s 9 -S COLOR -i black -I LightGrey -c blue -o blue
n -t 5.111008033 -s 19 -S COLOR -i black -I LightGrey -c blue -o blue
n -t 5.119089068 -s 16 -S COLOR -c blue -o blue
n -t 5.223888033 -s 1 -S COLOR -i LightGrey -I black -c blue -o blue
n -t 5.223888033 -s 9 -S COLOR -i LightGrey -I black -c blue -o blue
n -t 5.223888033 -s 19 -S COLOR -i LightGrey -I black -c blue -o blue
n -t 5.233888033 -s 1 -S COLOR -i black -I LightGrey -c blue -o blue
n -t 5.233888033 -s 9 -S COLOR -i black -I LightGrey -c blue -o blue
n -t 5.233888033 -s 19 -S COLOR -i black -I LightGrey -c blue -o blue
n -t 5.347024033 -s 1 -S COLOR -i LightGrey -I black -c blue -o blue
n -t 5.347024033 -s 9 -S COLOR -i LightGrey -I black -c blue -o blue
n -t 5.347024033 -s 19 -S COLOR -i LightGrey -I black -c blue -o blue
n -t 5.357024033 -s 1 -S COLOR -i black -I LightGrey -c blue -o blue
n -t 5.357024033 -s 9 -S COLOR -i black -I LightGrey -c blue -o blue
n -t 5.357024033 -s 19 -S COLOR -i black -I LightGrey -c blue -o blue
n -t 5.469904033 -s 1 -S COLOR -i LightGrey -I black -c blue -o blue
n -t 5.469904033 -s 9 -S COLOR -i LightGrey -I black -c blue -o blue
n -t 5.469904033 -s 19 -S COLOR -i LightGrey -I black -c blue -o blue
n -t 5.479904033 -s 1 -S COLOR -i black -I LightGrey -c blue -o blue
n -t 5.479904033 -s 9 -S COLOR -i black -I LightGrey -c blue -o blue
n -t 5.479904033 -s 19 -S COLOR -i black -I LightGrey -c blue -o blue
n -t 5.592784033 -s 1 -S COLOR -i LightGrey -I black -c blue -o blue
n -t 5.592784033 -s 9 -S COLOR -i LightGrey -I black -c blue -o blue
n -t 5.592784033 -s 19 -S COLOR -i LightGrey -I black -c blue -o blue
n -t 5.602784033 -s 1 -S COLOR -i black -I LightGrey -c blue -o blue
n -t 5.602784033 -s 9 -S COLOR -i black -I LightGrey -c blue -o blue
n -t 5.602784033 -s 19 -S COLOR -i black -I LightGrey -c blue -o blue
n -t 5.715664033 -s 1 -S COLOR -i LightGrey -I black -c blue -o blue
n -t 5.715664033 -s 9 -S COLOR -i LightGrey -I black -c blue -o blue
n -t 5.715664033 -s 19 -S COLOR -i LightGrey -I black -c blue -o blue
n -t 5.725664033 -s 1 -S COLOR -i black -I LightGrey -c blue -o blue
n -t 5.725664033 -s 9 -S COLOR -i black -I LightGrey -c blue -o blue
n -t 5.725664033 -s 19 -S COLOR -i black -I LightGrey -c blue -o blue
n -t 5.765888034 -s 13 -S COLOR -c blue -o black
n -t 5.765888034 -s 13 -S DLABEL -l "-43 (0.1)" -L "-"
n -t 5.795889034 -s 13 -S COLOR -c blue -o blue
n -t 5.838288033 -s 1 -S COLOR -i LightGrey -I black -c blue -o blue
n -t 5.838288033 -s 9 -S COLOR -i LightGrey -I black -c blue -o blue
n -t 5.838288033 -s 19 -S COLOR -i LightGrey -I black -c blue -o blue
n -t 5.838288033 -s 13 -S COLOR -i LightGrey -I black -c blue -o blue
n -t 5.848288033 -s 1 -S COLOR -i black -I LightGrey -c blue -o blue
n -t 5.848288033 -s 9 -S COLOR -i black -I LightGrey -c blue -o blue
n -t 5.848288033 -s 19 -S COLOR -i black -I LightGrey -c blue -o blue
n -t 5.848288033 -s 13 -S COLOR -i black -I LightGrey -c blue -o blue
n -t 5.961168033 -s 1 -S COLOR -i LightGrey -I black -c blue -o blue
n -t 5.961168033 -s 9 -S COLOR -i LightGrey -I black -c blue -o blue
n -t 5.961168033 -s 19 -S COLOR -i LightGrey -I black -c blue -o blue
n -t 5.961168033 -s 13 -S COLOR -i LightGrey -I black -c blue -o blue
n -t 5.971168033 -s 1 -S COLOR -i black -I LightGrey -c blue -o blue
n -t 5.971168033 -s 9 -S COLOR -i black -I LightGrey -c blue -o blue
n -t 5.971168033 -s 19 -S COLOR -i black -I LightGrey -c blue -o blue
n -t 5.971168033 -s 13 -S COLOR -i black -I LightGrey -c blue -o blue
n -t 6.084048033 -s 1 -S COLOR -i LightGrey -I black -c blue -o blue
n -t 6.084048033 -s 9 -S COLOR -i LightGrey -I black -c blue -o blue
n -t 6.084048033 -s 19 -S COLOR -i LightGrey -I black -c blue -o blue
n -t 6.084048033 -s 13 -S COLOR -i LightGrey -I black -c blue -o blue
n -t 6.094048033 -s 1 -S COLOR -i black -I LightGrey -c blue -o blue
n -t 6.094048033 -s 9 -S COLOR -i black -I LightGrey -c blue -o blue
n -t 6.094048033 -s 19 -S COLOR -i black -I LightGrey -c blue -o blue
n -t 6.094048033 -s 13 -S COLOR -i black -I LightGrey -c blue -o blue
n -t 6.206928033 -s 1 -S COLOR -i LightGrey -I black -c blue -o blue
n -t 6.206928033 -s 9 -S COLOR -i LightGrey -I black -c blue -o blue
n -t 6.206928033 -s 19 -S COLOR -i LightGrey -I black -c blue -o blue
n -t 6.206928033 -s 13 -S COLOR -i LightGrey -I black -c blue -o blue
n -t 6.216928033 -s 1 -S COLOR -i black -I LightGrey -c blue -o blue
n -t 6.216928033 -s 9 -S COLOR -i black -I LightGrey -c blue -o blue
n -t 6.216928033 -s 19 -S COLOR -i black -I LightGrey -c blue -o blue
n -t 6.216928033 -s 13 -S COLOR -i black -I LightGrey -c blue -o blue
n -t 6.329808033 -s 1 -S COLOR -i LightGrey -I black -c blue -o blue
n -t 6.329808033 -s 9 -S COLOR -i LightGrey -I black -c blue -o blue
n -t 6.329808033 -s 19 -S COLOR -i LightGrey -I black -c blue -o blue
n -t 6.329808033 -s 13 -S COLOR -i LightGrey -I black -c blue -o blue
n -t 6.339808033 -s 1 -S COLOR -i black -I LightGrey -c blue -o blue
n -t 6.339808033 -s 9 -S COLOR -i black -I LightGrey -c blue -o blue
n -t 6.339808033 -s 19 -S COLOR -i black -I LightGrey -c blue -o blue
n -t 6.339808033 -s 13 -S COLOR -i black -I LightGrey -c blue -o blue
n -t 6.380992068 -s 11 -S COLOR -c gold -o black
n -t 6.386176101 -s 17 -S COLOR -c green3 -o black
n -t 6.386176101 -s 17 -S DLABEL -l "+66 (65.3)" -L "+"
n -t 6.390992068 -s 11 -S COLOR -c grey -o gold
n -t 6.400992068 -s 11 -S COLOR -c black -o grey
n -t 6.416177101 -s 17 -S COLOR -c green3 -o green3
n -t 6.451536100 -s 17 -S COLOR -i LightGrey -I black -c green3 -o green3
n -t 6.452688033 -s 1 -S COLOR -i LightGrey -I black -c blue -o blue
n -t 6.452688033 -s 9 -S COLOR -i LightGrey -I black -c blue -o blue
n -t 6.452688033 -s 19 -S COLOR -i LightGrey -I black -c blue -o blue
n -t 6.452688033 -s 13 -S COLOR -i LightGrey -I black -c blue -o blue
n -t 6.461536100 -s 17 -S COLOR -i black -I LightGrey -c green3 -o green3
n -t 6.462688033 -s 1 -S COLOR -i black -I LightGrey -c blue -o blue
n -t 6.462688033 -s 9 -S COLOR -i black -I LightGrey -c blue -o blue
n -t 6.462688033 -s 19 -S COLOR -i black -I LightGrey -c blue -o blue
n -t 6.462688033 -s 13 -S COLOR -i black -I LightGrey -c blue -o blue
n -t 6.574416100 -s 17 -S COLOR -i LightGrey -I black -c green3 -o green3
n -t 6.575568033 -s 1 -S COLOR -i LightGrey -I black -c blue -o blue
n -t 6.575568033 -s 9 -S COLOR -i LightGrey -I black -c blue -o blue
n -t 6.575568033 -s 19 -S COLOR -i LightGrey -I black -c blue -o blue
n -t 6.575568033 -s 13 -S COLOR -i LightGrey -I black -c blue -o blue
n -t 6.584416100 -s 17 -S COLOR -i black -I LightGrey -c green3 -o green3
n -t 6.585568033 -s 1 -S COLOR -i black -I LightGrey -c blue -o blue
n -t 6.585568033 -s 9 -S COLOR -i black -I LightGrey -c blue -o blue
n -t 6.585568033 -s 19 -S COLOR -i black -I LightGrey -c blue -o blue
n -t 6.585568033 -s 13 -S COLOR -i black -I LightGrey -c blue -o blue
n -t 6.697296100 -s 17 -S COLOR -i LightGrey -I black -c green3 -o green3
n -t 6.698448033 -s 1 -S COLOR -i LightGrey -I black -c blue -o blue
n -t 6.698448033 -s 9 -S COLOR -i LightGrey -I black -c blue -o blue
n -t 6.698448033 -s 19 -S COLOR -i LightGrey -I black -c blue -o blue
n -t 6.698448033 -s 13 -S COLOR -i LightGrey -I black -c blue -o blue
n -t 6.707296100 -s 17 -S COLOR -i black -I LightGrey -c green3 -o green3
n -t 6.708448033 -s 1 -S COLOR -i black -I LightGrey -c blue -o blue
n -t 6.708448033 -s 9 -S COLOR -i black -I LightGrey -c blue -o blue
n -t 6.708448033 -s 19 -S COLOR -i black -I LightGrey -c blue -o blue
n -t 6.708448033 -s 13 -S COLOR -i black -I LightGrey -c blue -o blue
n -t 6.820176100 -s 17 -S COLOR -i LightGrey -I black -c green3 -o green3
n -t 6.821328033 -s 1 -S COLOR -i LightGrey -I black -c blue -o blue
n -t 6.821328033 -s 9 -S COLOR -i LightGrey -I black -c blue -o blue
n -t 6.821328033 -s 19 -S COLOR -i LightGrey -I black -c blue -o blue
n -t 6.821328033 -s 13 -S COLOR -i LightGrey -I black -c blue -o blue
n -t 6.830176100 -s 17 -S COLOR -i black -I LightGrey -c green3 -o green3
n -t 6.831328033 -s 1 -S COLOR -i black -I LightGrey -c blue -o blue
n -t 6.831328033 -s 9 -S COLOR -i black -I LightGrey -c blue -o blue
n -t 6.831328033 -s 19 -S COLOR -i black -I LightGrey -c blue -o blue
n -t 6.831328033 -s 13 -S COLOR -i black -I LightGrey -c blue -o blue
n -t 6.883104068 -s 20 -S COLOR -c gold -o black
n -t 6.883584034 -s 2 -S COLOR -c gold -o blue
n -t 6.888672068 -s 20 -S DLABEL -l " ~ 19" -L "-"
n -t 6.893104068 -s 20 -S COLOR -c grey -o gold
n -t 6.893584034 -s 2 -S COLOR -c grey -o gold
n -t 6.903104068 -s 20 -S COLOR -c black -o grey
n -t 6.903584034 -s 2 -S COLOR -c blue -o grey
n -t 6.908672068 -s 20 -S DLABEL -l " " -L " ~ 19"
n -t 6.910208034 -s 19 -S DLABEL -l " ~ 20" -L "+64 (0.1)"
n -t 6.918672068 -s 20 -S DLABEL -l "-" -L " ~ 19"
n -t 6.930208034 -s 19 -S DLABEL -l " " -L " ~ 20"
n -t 6.940208034 -s 19 -S DLABEL -l "+64 (0.1)" -L " ~ 20"
n -t 6.943056100 -s 17 -S COLOR -i LightGrey -I black -c green3 -o green3
n -t 6.944208033 -s 1 -S COLOR -i LightGrey -I black -c blue -o blue
n -t 6.944208033 -s 9 -S COLOR -i LightGrey -I black -c blue -o blue
n -t 6.944208033 -s 19 -S COLOR -i LightGrey -I black -c blue -o blue
n -t 6.944208033 -s 13 -S COLOR -i LightGrey -I black -c blue -o blue
n -t 6.953056100 -s 17 -S COLOR -i black -I LightGrey -c green3 -o green3
n -t 6.954208033 -s 1 -S COLOR -i black -I LightGrey -c blue -o blue
n -t 6.954208033 -s 9 -S COLOR -i black -I LightGrey -c blue -o blue
n -t 6.954208033 -s 19 -S COLOR -i black -I LightGrey -c blue -o blue
n -t 6.954208033 -s 13 -S COLOR -i black -I LightGrey -c blue -o blue
n -t 7.065936100 -s 17 -S COLOR -i LightGrey -I black -c green3 -o green3
n -t 7.067088033 -s 1 -S COLOR -i LightGrey -I black -c blue -o blue
n -t 7.067088033 -s 9 -S COLOR -i LightGrey -I black -c blue -o blue
n -t 7.067088033 -s 19 -S COLOR -i LightGrey -I black -c blue -o blue
n -t 7.067088033 -s 13 -S COLOR -i LightGrey -I black -c blue -o blue
n -t 7.075936100 -s 17 -S COLOR -i black -I LightGrey -c green3 -o green3
n -t 7.077088033 -s 1 -S COLOR -i black -I LightGrey -c blue -o blue
n -t 7.077088033 -s 9 -S COLOR -i black -I LightGrey -c blue -o blue
n -t 7.077088033 -s 19 -S COLOR -i black -I LightGrey -c blue -o blue
n -t 7.077088033 -s 13 -S COLOR -i black -I LightGrey -c blue -o blue
n -t 7.087808068 -s 5 -S COLOR -c blue -o black
n -t 7.087808068 -s 5 -S DLABEL -l "+7 (1.2)" -L "+"
n -t 7.117809068 -s 5 -S COLOR -c blue -o blue
n -t 7.188816100 -s 17 -S COLOR -i LightGrey -I black -c green3 -o green3
n -t 7.189968033 -s 1 -S COLOR -i LightGrey -I black -c blue -o blue
n -t 7.189968033 -s 9 -S COLOR -i LightGrey -I black -c blue -o blue
n -t 7.189968033 -s 19 -S COLOR -i LightGrey -I black -c blue -o blue
n -t 7.189968033 -s 13 -S COLOR -i LightGrey -I black -c blue -o blue
n -t 7.198816100 -s 17 -S COLOR -i black -I LightGrey -c green3 -o green3
n -t 7.199968033 -s 1 -S COLOR -i black -I LightGrey -c blue -o blue
n -t 7.199968033 -s 9 -S COLOR -i black -I LightGrey -c blue -o blue
n -t 7.199968033 -s 19 -S COLOR -i black -I LightGrey -c blue -o blue
n -t 7.199968033 -s 13 -S COLOR -i black -I LightGrey -c blue -o blue
n -t 7.290688068 -s 10 -S COLOR -c blue -o black
n -t 7.290688068 -s 10 -S DLABEL -l "-33 (22.2)" -L "-"
n -t 7.311696100 -s 17 -S COLOR -i LightGrey -I black -c green3 -o green3
n -t 7.312848033 -s 1 -S COLOR -i LightGrey -I black -c blue -o blue
n -t 7.312848033 -s 9 -S COLOR -i LightGrey -I black -c blue -o blue
n -t 7.312848033 -s 19 -S COLOR -i LightGrey -I black -c blue -o blue
n -t 7.312848033 -s 13 -S COLOR -i LightGrey -I black -c blue -o blue
n -t 7.320689068 -s 10 -S COLOR -c blue -o blue
n -t 7.321696100 -s 17 -S COLOR -i black -I LightGrey -c green3 -o green3
n -t 7.322848033 -s 1 -S COLOR -i black -I LightGrey -c blue -o blue
n -t 7.322848033 -s 9 -S COLOR -i black -I LightGrey -c blue -o blue
n -t 7.322848033 -s 19 -S COLOR -i black -I LightGrey -c blue -o blue
n -t 7.322848033 -s 13 -S COLOR -i black -I LightGrey -c blue -o blue
n -t 7.385856101 -s 3 -S COLOR -c green3 -o black
n -t 7.385856101 -s 3 -S DLABEL -l "-3 (2.3)" -L "-"
n -t 7.415857101 -s 3 -S COLOR -c green3 -o green3
n -t 7.425616100 -s 3 -S COLOR -i LightGrey -I black -c green3 -o green3
n -t 7.434576100 -s 17 -S COLOR -i LightGrey -I black -c green3 -o green3
n -t 7.435616100 -s 3 -S COLOR -i black -I LightGrey -c green3 -o green3
n -t 7.435728033 -s 1 -S COLOR -i LightGrey -I black -c blue -o blue
n -t 7.435728033 -s 9 -S COLOR -i LightGrey -I black -c blue -o blue
n -t 7.435728033 -s 19 -S COLOR -i LightGrey -I black -c blue -o blue
n -t 7.435728033 -s 13 -S COLOR -i LightGrey -I black -c blue -o blue
n -t 7.444576100 -s 17 -S COLOR -i black -I LightGrey -c green3 -o green3
n -t 7.445728033 -s 1 -S COLOR -i black -I LightGrey -c blue -o blue
n -t 7.445728033 -s 9 -S COLOR -i black -I LightGrey -c blue -o blue
n -t 7.445728033 -s 19 -S COLOR -i black -I LightGrey -c blue -o blue
n -t 7.445728033 -s 13 -S COLOR -i black -I LightGrey -c blue -o blue
n -t 7.548496100 -s 3 -S COLOR -i LightGrey -I black -c green3 -o green3
n -t 7.557456100 -s 17 -S COLOR -i LightGrey -I black -c green3 -o green3
n -t 7.558496100 -s 3 -S COLOR -i black -I LightGrey -c green3 -o green3
n -t 7.558608033 -s 1 -S COLOR -i LightGrey -I black -c blue -o blue
n -t 7.558608033 -s 9 -S COLOR -i LightGrey -I black -c blue -o blue
n -t 7.558608033 -s 19 -S COLOR -i LightGrey -I black -c blue -o blue
n -t 7.558608033 -s 13 -S COLOR -i LightGrey -I black -c blue -o blue
n -t 7.567456100 -s 17 -S COLOR -i black -I LightGrey -c green3 -o green3
n -t 7.568608033 -s 1 -S COLOR -i black -I LightGrey -c blue -o blue
n -t 7.568608033 -s 9 -S COLOR -i black -I LightGrey -c blue -o blue
n -t 7.568608033 -s 19 -S COLOR -i black -I LightGrey -c blue -o blue
n -t 7.568608033 -s 13 -S COLOR -i black -I LightGrey -c blue -o blue
n -t 7.579136101 -s 6 -S COLOR -c blue -o black
n -t 7.579136101 -s 6 -S DLABEL -l "+24 (23.3)" -L "+"
n -t 7.587008068 -s 14 -S COLOR -c blue -o black
n -t 7.587008068 -s 14 -S DLABEL -l "+44 (43.2)" -L "+"
n -t 7.609137101 -s 6 -S COLOR -c blue -o blue
n -t 7.617009068 -s 14 -S COLOR -c blue -o blue
n -t 7.626256100 -s 6 -S COLOR -i LightGrey -I black -c blue -o blue
n -t 7.636256100 -s 6 -S COLOR -i black -I LightGrey -c blue -o blue
n -t 7.671376100 -s 3 -S COLOR -i LightGrey -I black -c green3 -o green3
n -t 7.680592100 -s 17 -S COLOR -i LightGrey -I black -c green3 -o green3
n -t 7.681376100 -s 3 -S COLOR -i black -I LightGrey -c green3 -o green3
n -t 7.681488033 -s 1 -S COLOR -i LightGrey -I black -c blue -o blue
n -t 7.681488033 -s 9 -S COLOR -i LightGrey -I black -c blue -o blue
n -t 7.681488033 -s 19 -S COLOR -i LightGrey -I black -c blue -o blue
n -t 7.681488033 -s 13 -S COLOR -i LightGrey -I black -c blue -o blue
n -t 7.690592100 -s 17 -S COLOR -i black -I LightGrey -c green3 -o green3
n -t 7.691488033 -s 1 -S COLOR -i black -I LightGrey -c blue -o blue
n -t 7.691488033 -s 9 -S COLOR -i black -I LightGrey -c blue -o blue
n -t 7.691488033 -s 19 -S COLOR -i black -I LightGrey -c blue -o blue
n -t 7.691488033 -s 13 -S COLOR -i black -I LightGrey -c blue -o blue
n -t 7.749136100 -s 6 -S COLOR -i LightGrey -I black -c blue -o blue
n -t 7.759136100 -s 6 -S COLOR -i black -I LightGrey -c blue -o blue
n -t 7.794256100 -s 3 -S COLOR -i LightGrey -I black -c green3 -o green3
n -t 7.803472100 -s 17 -S COLOR -i LightGrey -I black -c green3 -o green3
n -t 7.804256100 -s 3 -S COLOR -i black -I LightGrey -c green3 -o green3
n -t 7.804368033 -s 1 -S COLOR -i LightGrey -I black -c blue -o blue
n -t 7.804368033 -s 9 -S COLOR -i LightGrey -I black -c blue -o blue
n -t 7.804368033 -s 19 -S COLOR -i LightGrey -I black -c blue -o blue
n -t 7.804368033 -s 13 -S COLOR -i LightGrey -I black -c blue -o blue
n -t 7.813472100 -s 17 -S COLOR -i black -I LightGrey -c green3 -o green3
n -t 7.814368033 -s 1 -S COLOR -i black -I LightGrey -c blue -o blue
n -t 7.814368033 -s 9 -S COLOR -i black -I LightGrey -c blue -o blue
n -t 7.814368033 -s 19 -S COLOR -i black -I LightGrey -c blue -o blue
n -t 7.814368033 -s 13 -S COLOR -i black -I LightGrey -c blue -o blue
n -t 7.872016100 -s 6 -S COLOR -i LightGrey -I black -c blue -o blue
n -t 7.882016100 -s 6 -S COLOR -i black -I LightGrey -c blue -o blue
n -t 7.917392100 -s 3 -S COLOR -i LightGrey -I black -c green3 -o green3
n -t 7.926352100 -s 17 -S COLOR -i LightGrey -I black -c green3 -o green3
n -t 7.927248033 -s 1 -S COLOR -i LightGrey -I black -c blue -o blue
n -t 7.927248033 -s 9 -S COLOR -i LightGrey -I black -c blue -o blue
n -t 7.927248033 -s 19 -S COLOR -i LightGrey -I black -c blue -o blue
n -t 7.927248033 -s 13 -S COLOR -i LightGrey -I black -c blue -o blue
n -t 7.927392100 -s 3 -S COLOR -i black -I LightGrey -c green3 -o green3
n -t 7.936352100 -s 17 -S COLOR -i black -I LightGrey -c green3 -o green3
n -t 7.937248033 -s 1 -S COLOR -i black -I LightGrey -c blue -o blue
n -t 7.937248033 -s 9 -S COLOR -i black -I LightGrey -c blue -o blue
n -t 7.937248033 -s 19 -S COLOR -i black -I LightGrey -c blue -o blue
n -t 7.937248033 -s 13 -S COLOR -i black -I LightGrey -c blue -o blue
n -t 7.994896100 -s 6 -S COLOR -i LightGrey -I black -c blue -o blue
n -t 8.004896100 -s 6 -S COLOR -i black -I LightGrey -c blue -o blue
n -t 8.040272100 -s 3 -S COLOR -i LightGrey -I black -c green3 -o green3
n -t 8.049232100 -s 17 -S COLOR -i LightGrey -I black -c green3 -o green3
n -t 8.050128033 -s 1 -S COLOR -i LightGrey -I black -c blue -o blue
n -t 8.050128033 -s 9 -S COLOR -i LightGrey -I black -c blue -o blue
n -t 8.050128033 -s 19 -S COLOR -i LightGrey -I black -c blue -o blue
n -t 8.050128033 -s 13 -S COLOR -i LightGrey -I black -c blue -o blue
n -t 8.050272100 -s 3 -S COLOR -i black -I LightGrey -c green3 -o green3
n -t 8.059232100 -s 17 -S COLOR -i black -I LightGrey -c green3 -o green3
n -t 8.060128033 -s 1 -S COLOR -i black -I LightGrey -c blue -o blue